<?xml version="1.0"?>
<VTKFile type="UnstructuredGrid"  version="0.1"  >
<UnstructuredGrid>
<Piece  NumberOfPoints="176" NumberOfCells="540">
<Points>
<DataArray  type="Float64"  NumberOfComponents="3"  format="ascii">0 0 0  0.1 0 0  0.2 0 0  0.3 0 0  0.4 0 0  0.5 0 0  0.6 0 0  0.7 0 0  0.8 0 0  0.9 0 0  1 0 0  0 0.06666666666666667 0  0.1 0.06666666666666667 0  0.2 0.06666666666666667 0  0.3 0.06666666666666667 0  0.4 0.06666666666666667 0  0.5 0.06666666666666667 0  0.6 0.06666666666666667 0  0.7 0.06666666666666667 0  0.8 0.06666666666666667 0  0.9 0.06666666666666667 0  1 0.06666666666666667 0  0 0.1333333333333333 0  0.1 0.1333333333333333 0  0.2 0.1333333333333333 0  0.3 0.1333333333333333 0  0.4 0.1333333333333333 0  0.5 0.1333333333333333 0  0.6 0.1333333333333333 0  0.7 0.1333333333333333 0  0.8 0.1333333333333333 0  0.9 0.1333333333333333 0  1 0.1333333333333333 0  0 0.2 0  0.1 0.2 0  0.2 0.2 0  0.3 0.2 0  0.4 0.2 0  0.5 0.2 0  0.6 0.2 0  0.7 0.2 0  0.8 0.2 0  0.9 0.2 0  1 0.2 0  0 0 0.06666666666666667  0.1 0 0.06666666666666667  0.2 0 0.06666666666666667  0.3 0 0.06666666666666667  0.4 0 0.06666666666666667  0.5 0 0.06666666666666667  0.6 0 0.06666666666666667  0.7 0 0.06666666666666667  0.8 0 0.06666666666666667  0.9 0 0.06666666666666667  1 0 0.06666666666666667  0 0.06666666666666667 0.06666666666666667  0.1 0.06666666666666667 0.06666666666666667  0.2 0.06666666666666667 0.06666666666666667  0.3 0.06666666666666667 0.06666666666666667  0.4 0.06666666666666667 0.06666666666666667  0.5 0.06666666666666667 0.06666666666666667  0.6 0.06666666666666667 0.06666666666666667  0.7 0.06666666666666667 0.06666666666666667  0.8 0.06666666666666667 0.06666666666666667  0.9 0.06666666666666667 0.06666666666666667  1 0.06666666666666667 0.06666666666666667  0 0.1333333333333333 0.06666666666666667  0.1 0.1333333333333333 0.06666666666666667  0.2 0.1333333333333333 0.06666666666666667  0.3 0.1333333333333333 0.06666666666666667  0.4 0.1333333333333333 0.06666666666666667  0.5 0.1333333333333333 0.06666666666666667  0.6 0.1333333333333333 0.06666666666666667  0.7 0.1333333333333333 0.06666666666666667  0.8 0.1333333333333333 0.06666666666666667  0.9 0.1333333333333333 0.06666666666666667  1 0.1333333333333333 0.06666666666666667  0 0.2 0.06666666666666667  0.1 0.2 0.06666666666666667  0.2 0.2 0.06666666666666667  0.3 0.2 0.06666666666666667  0.4 0.2 0.06666666666666667  0.5 0.2 0.06666666666666667  0.6 0.2 0.06666666666666667  0.7 0.2 0.06666666666666667  0.8 0.2 0.06666666666666667  0.9 0.2 0.06666666666666667  1 0.2 0.06666666666666667  0 0 0.1333333333333333  0.1 0 0.1333333333333333  0.2 0 0.1333333333333333  0.3 0 0.1333333333333333  0.4 0 0.1333333333333333  0.5 0 0.1333333333333333  0.6 0 0.1333333333333333  0.7 0 0.1333333333333333  0.8 0 0.1333333333333333  0.9 0 0.1333333333333333  1 0 0.1333333333333333  0 0.06666666666666667 0.1333333333333333  0.1 0.06666666666666667 0.1333333333333333  0.2 0.06666666666666667 0.1333333333333333  0.3 0.06666666666666667 0.1333333333333333  0.4 0.06666666666666667 0.1333333333333333  0.5 0.06666666666666667 0.1333333333333333  0.6 0.06666666666666667 0.1333333333333333  0.7 0.06666666666666667 0.1333333333333333  0.8 0.06666666666666667 0.1333333333333333  0.9 0.06666666666666667 0.1333333333333333  1 0.06666666666666667 0.1333333333333333  0 0.1333333333333333 0.1333333333333333  0.1 0.1333333333333333 0.1333333333333333  0.2 0.1333333333333333 0.1333333333333333  0.3 0.1333333333333333 0.1333333333333333  0.4 0.1333333333333333 0.1333333333333333  0.5 0.1333333333333333 0.1333333333333333  0.6 0.1333333333333333 0.1333333333333333  0.7 0.1333333333333333 0.1333333333333333  0.8 0.1333333333333333 0.1333333333333333  0.9 0.1333333333333333 0.1333333333333333  1 0.1333333333333333 0.1333333333333333  0 0.2 0.1333333333333333  0.1 0.2 0.1333333333333333  0.2 0.2 0.1333333333333333  0.3 0.2 0.1333333333333333  0.4 0.2 0.1333333333333333  0.5 0.2 0.1333333333333333  0.6 0.2 0.1333333333333333  0.7 0.2 0.1333333333333333  0.8 0.2 0.1333333333333333  0.9 0.2 0.1333333333333333  1 0.2 0.1333333333333333  0 0 0.2  0.1 0 0.2  0.2 0 0.2  0.3 0 0.2  0.4 0 0.2  0.5 0 0.2  0.6 0 0.2  0.7 0 0.2  0.8 0 0.2  0.9 0 0.2  1 0 0.2  0 0.06666666666666667 0.2  0.1 0.06666666666666667 0.2  0.2 0.06666666666666667 0.2  0.3 0.06666666666666667 0.2  0.4 0.06666666666666667 0.2  0.5 0.06666666666666667 0.2  0.6 0.06666666666666667 0.2  0.7 0.06666666666666667 0.2  0.8 0.06666666666666667 0.2  0.9 0.06666666666666667 0.2  1 0.06666666666666667 0.2  0 0.1333333333333333 0.2  0.1 0.1333333333333333 0.2  0.2 0.1333333333333333 0.2  0.3 0.1333333333333333 0.2  0.4 0.1333333333333333 0.2  0.5 0.1333333333333333 0.2  0.6 0.1333333333333333 0.2  0.7 0.1333333333333333 0.2  0.8 0.1333333333333333 0.2  0.9 0.1333333333333333 0.2  1 0.1333333333333333 0.2  0 0.2 0.2  0.1 0.2 0.2  0.2 0.2 0.2  0.3 0.2 0.2  0.4 0.2 0.2  0.5 0.2 0.2  0.6 0.2 0.2  0.7 0.2 0.2  0.8 0.2 0.2  0.9 0.2 0.2  1 0.2 0.2  </DataArray>
</Points>
<Cells>
<DataArray  type="UInt32"  Name="connectivity"  format="ascii">0 1 12 56  0 1 45 56  0 44 45 56  0 11 12 56  0 44 55 56  0 11 55 56  1 2 13 57  1 2 46 57  1 45 46 57  1 12 13 57  1 45 56 57  1 12 56 57  2 3 14 58  2 3 47 58  2 46 47 58  2 13 14 58  2 46 57 58  2 13 57 58  3 4 15 59  3 4 48 59  3 47 48 59  3 14 15 59  3 47 58 59  3 14 58 59  4 5 16 60  4 5 49 60  4 48 49 60  4 15 16 60  4 48 59 60  4 15 59 60  5 6 17 61  5 6 50 61  5 49 50 61  5 16 17 61  5 49 60 61  5 16 60 61  6 7 18 62  6 7 51 62  6 50 51 62  6 17 18 62  6 50 61 62  6 17 61 62  7 8 19 63  7 8 52 63  7 51 52 63  7 18 19 63  7 51 62 63  7 18 62 63  8 9 20 64  8 9 53 64  8 52 53 64  8 19 20 64  8 52 63 64  8 19 63 64  9 10 21 65  9 10 54 65  9 53 54 65  9 20 21 65  9 53 64 65  9 20 64 65  11 12 23 67  11 12 56 67  11 55 56 67  11 22 23 67  11 55 66 67  11 22 66 67  12 13 24 68  12 13 57 68  12 56 57 68  12 23 24 68  12 56 67 68  12 23 67 68  13 14 25 69  13 14 58 69  13 57 58 69  13 24 25 69  13 57 68 69  13 24 68 69  14 15 26 70  14 15 59 70  14 58 59 70  14 25 26 70  14 58 69 70  14 25 69 70  15 16 27 71  15 16 60 71  15 59 60 71  15 26 27 71  15 59 70 71  15 26 70 71  16 17 28 72  16 17 61 72  16 60 61 72  16 27 28 72  16 60 71 72  16 27 71 72  17 18 29 73  17 18 62 73  17 61 62 73  17 28 29 73  17 61 72 73  17 28 72 73  18 19 30 74  18 19 63 74  18 62 63 74  18 29 30 74  18 62 73 74  18 29 73 74  19 20 31 75  19 20 64 75  19 63 64 75  19 30 31 75  19 63 74 75  19 30 74 75  20 21 32 76  20 21 65 76  20 64 65 76  20 31 32 76  20 64 75 76  20 31 75 76  22 23 34 78  22 23 67 78  22 66 67 78  22 33 34 78  22 66 77 78  22 33 77 78  23 24 35 79  23 24 68 79  23 67 68 79  23 34 35 79  23 67 78 79  23 34 78 79  24 25 36 80  24 25 69 80  24 68 69 80  24 35 36 80  24 68 79 80  24 35 79 80  25 26 37 81  25 26 70 81  25 69 70 81  25 36 37 81  25 69 80 81  25 36 80 81  26 27 38 82  26 27 71 82  26 70 71 82  26 37 38 82  26 70 81 82  26 37 81 82  27 28 39 83  27 28 72 83  27 71 72 83  27 38 39 83  27 71 82 83  27 38 82 83  28 29 40 84  28 29 73 84  28 72 73 84  28 39 40 84  28 72 83 84  28 39 83 84  29 30 41 85  29 30 74 85  29 73 74 85  29 40 41 85  29 73 84 85  29 40 84 85  30 31 42 86  30 31 75 86  30 74 75 86  30 41 42 86  30 74 85 86  30 41 85 86  31 32 43 87  31 32 76 87  31 75 76 87  31 42 43 87  31 75 86 87  31 42 86 87  44 45 56 100  44 45 89 100  44 88 89 100  44 55 56 100  44 88 99 100  44 55 99 100  45 46 57 101  45 46 90 101  45 89 90 101  45 56 57 101  45 89 100 101  45 56 100 101  46 47 58 102  46 47 91 102  46 90 91 102  46 57 58 102  46 90 101 102  46 57 101 102  47 48 59 103  47 48 92 103  47 91 92 103  47 58 59 103  47 91 102 103  47 58 102 103  48 49 60 104  48 49 93 104  48 92 93 104  48 59 60 104  48 92 103 104  48 59 103 104  49 50 61 105  49 50 94 105  49 93 94 105  49 60 61 105  49 93 104 105  49 60 104 105  50 51 62 106  50 51 95 106  50 94 95 106  50 61 62 106  50 94 105 106  50 61 105 106  51 52 63 107  51 52 96 107  51 95 96 107  51 62 63 107  51 95 106 107  51 62 106 107  52 53 64 108  52 53 97 108  52 96 97 108  52 63 64 108  52 96 107 108  52 63 107 108  53 54 65 109  53 54 98 109  53 97 98 109  53 64 65 109  53 97 108 109  53 64 108 109  55 56 67 111  55 56 100 111  55 99 100 111  55 66 67 111  55 99 110 111  55 66 110 111  56 57 68 112  56 57 101 112  56 100 101 112  56 67 68 112  56 100 111 112  56 67 111 112  57 58 69 113  57 58 102 113  57 101 102 113  57 68 69 113  57 101 112 113  57 68 112 113  58 59 70 114  58 59 103 114  58 102 103 114  58 69 70 114  58 102 113 114  58 69 113 114  59 60 71 115  59 60 104 115  59 103 104 115  59 70 71 115  59 103 114 115  59 70 114 115  60 61 72 116  60 61 105 116  60 104 105 116  60 71 72 116  60 104 115 116  60 71 115 116  61 62 73 117  61 62 106 117  61 105 106 117  61 72 73 117  61 105 116 117  61 72 116 117  62 63 74 118  62 63 107 118  62 106 107 118  62 73 74 118  62 106 117 118  62 73 117 118  63 64 75 119  63 64 108 119  63 107 108 119  63 74 75 119  63 107 118 119  63 74 118 119  64 65 76 120  64 65 109 120  64 108 109 120  64 75 76 120  64 108 119 120  64 75 119 120  66 67 78 122  66 67 111 122  66 110 111 122  66 77 78 122  66 110 121 122  66 77 121 122  67 68 79 123  67 68 112 123  67 111 112 123  67 78 79 123  67 111 122 123  67 78 122 123  68 69 80 124  68 69 113 124  68 112 113 124  68 79 80 124  68 112 123 124  68 79 123 124  69 70 81 125  69 70 114 125  69 113 114 125  69 80 81 125  69 113 124 125  69 80 124 125  70 71 82 126  70 71 115 126  70 114 115 126  70 81 82 126  70 114 125 126  70 81 125 126  71 72 83 127  71 72 116 127  71 115 116 127  71 82 83 127  71 115 126 127  71 82 126 127  72 73 84 128  72 73 117 128  72 116 117 128  72 83 84 128  72 116 127 128  72 83 127 128  73 74 85 129  73 74 118 129  73 117 118 129  73 84 85 129  73 117 128 129  73 84 128 129  74 75 86 130  74 75 119 130  74 118 119 130  74 85 86 130  74 118 129 130  74 85 129 130  75 76 87 131  75 76 120 131  75 119 120 131  75 86 87 131  75 119 130 131  75 86 130 131  88 89 100 144  88 89 133 144  88 132 133 144  88 99 100 144  88 132 143 144  88 99 143 144  89 90 101 145  89 90 134 145  89 133 134 145  89 100 101 145  89 133 144 145  89 100 144 145  90 91 102 146  90 91 135 146  90 134 135 146  90 101 102 146  90 134 145 146  90 101 145 146  91 92 103 147  91 92 136 147  91 135 136 147  91 102 103 147  91 135 146 147  91 102 146 147  92 93 104 148  92 93 137 148  92 136 137 148  92 103 104 148  92 136 147 148  92 103 147 148  93 94 105 149  93 94 138 149  93 137 138 149  93 104 105 149  93 137 148 149  93 104 148 149  94 95 106 150  94 95 139 150  94 138 139 150  94 105 106 150  94 138 149 150  94 105 149 150  95 96 107 151  95 96 140 151  95 139 140 151  95 106 107 151  95 139 150 151  95 106 150 151  96 97 108 152  96 97 141 152  96 140 141 152  96 107 108 152  96 140 151 152  96 107 151 152  97 98 109 153  97 98 142 153  97 141 142 153  97 108 109 153  97 141 152 153  97 108 152 153  99 100 111 155  99 100 144 155  99 143 144 155  99 110 111 155  99 143 154 155  99 110 154 155  100 101 112 156  100 101 145 156  100 144 145 156  100 111 112 156  100 144 155 156  100 111 155 156  101 102 113 157  101 102 146 157  101 145 146 157  101 112 113 157  101 145 156 157  101 112 156 157  102 103 114 158  102 103 147 158  102 146 147 158  102 113 114 158  102 146 157 158  102 113 157 158  103 104 115 159  103 104 148 159  103 147 148 159  103 114 115 159  103 147 158 159  103 114 158 159  104 105 116 160  104 105 149 160  104 148 149 160  104 115 116 160  104 148 159 160  104 115 159 160  105 106 117 161  105 106 150 161  105 149 150 161  105 116 117 161  105 149 160 161  105 116 160 161  106 107 118 162  106 107 151 162  106 150 151 162  106 117 118 162  106 150 161 162  106 117 161 162  107 108 119 163  107 108 152 163  107 151 152 163  107 118 119 163  107 151 162 163  107 118 162 163  108 109 120 164  108 109 153 164  108 152 153 164  108 119 120 164  108 152 163 164  108 119 163 164  110 111 122 166  110 111 155 166  110 154 155 166  110 121 122 166  110 154 165 166  110 121 165 166  111 112 123 167  111 112 156 167  111 155 156 167  111 122 123 167  111 155 166 167  111 122 166 167  112 113 124 168  112 113 157 168  112 156 157 168  112 123 124 168  112 156 167 168  112 123 167 168  113 114 125 169  113 114 158 169  113 157 158 169  113 124 125 169  113 157 168 169  113 124 168 169  114 115 126 170  114 115 159 170  114 158 159 170  114 125 126 170  114 158 169 170  114 125 169 170  115 116 127 171  115 116 160 171  115 159 160 171  115 126 127 171  115 159 170 171  115 126 170 171  116 117 128 172  116 117 161 172  116 160 161 172  116 127 128 172  116 160 171 172  116 127 171 172  117 118 129 173  117 118 162 173  117 161 162 173  117 128 129 173  117 161 172 173  117 128 172 173  118 119 130 174  118 119 163 174  118 162 163 174  118 129 130 174  118 162 173 174  118 129 173 174  119 120 131 175  119 120 164 175  119 163 164 175  119 130 131 175  119 163 174 175  119 130 174 175  </DataArray>
<DataArray  type="UInt32"  Name="offsets"  format="ascii">4 8 12 16 20 24 28 32 36 40 44 48 52 56 60 64 68 72 76 80 84 88 92 96 100 104 108 112 116 120 124 128 132 136 140 144 148 152 156 160 164 168 172 176 180 184 188 192 196 200 204 208 212 216 220 224 228 232 236 240 244 248 252 256 260 264 268 272 276 280 284 288 292 296 300 304 308 312 316 320 324 328 332 336 340 344 348 352 356 360 364 368 372 376 380 384 388 392 396 400 404 408 412 416 420 424 428 432 436 440 444 448 452 456 460 464 468 472 476 480 484 488 492 496 500 504 508 512 516 520 524 528 532 536 540 544 548 552 556 560 564 568 572 576 580 584 588 592 596 600 604 608 612 616 620 624 628 632 636 640 644 648 652 656 660 664 668 672 676 680 684 688 692 696 700 704 708 712 716 720 724 728 732 736 740 744 748 752 756 760 764 768 772 776 780 784 788 792 796 800 804 808 812 816 820 824 828 832 836 840 844 848 852 856 860 864 868 872 876 880 884 888 892 896 900 904 908 912 916 920 924 928 932 936 940 944 948 952 956 960 964 968 972 976 980 984 988 992 996 1000 1004 1008 1012 1016 1020 1024 1028 1032 1036 1040 1044 1048 1052 1056 1060 1064 1068 1072 1076 1080 1084 1088 1092 1096 1100 1104 1108 1112 1116 1120 1124 1128 1132 1136 1140 1144 1148 1152 1156 1160 1164 1168 1172 1176 1180 1184 1188 1192 1196 1200 1204 1208 1212 1216 1220 1224 1228 1232 1236 1240 1244 1248 1252 1256 1260 1264 1268 1272 1276 1280 1284 1288 1292 1296 1300 1304 1308 1312 1316 1320 1324 1328 1332 1336 1340 1344 1348 1352 1356 1360 1364 1368 1372 1376 1380 1384 1388 1392 1396 1400 1404 1408 1412 1416 1420 1424 1428 1432 1436 1440 1444 1448 1452 1456 1460 1464 1468 1472 1476 1480 1484 1488 1492 1496 1500 1504 1508 1512 1516 1520 1524 1528 1532 1536 1540 1544 1548 1552 1556 1560 1564 1568 1572 1576 1580 1584 1588 1592 1596 1600 1604 1608 1612 1616 1620 1624 1628 1632 1636 1640 1644 1648 1652 1656 1660 1664 1668 1672 1676 1680 1684 1688 1692 1696 1700 1704 1708 1712 1716 1720 1724 1728 1732 1736 1740 1744 1748 1752 1756 1760 1764 1768 1772 1776 1780 1784 1788 1792 1796 1800 1804 1808 1812 1816 1820 1824 1828 1832 1836 1840 1844 1848 1852 1856 1860 1864 1868 1872 1876 1880 1884 1888 1892 1896 1900 1904 1908 1912 1916 1920 1924 1928 1932 1936 1940 1944 1948 1952 1956 1960 1964 1968 1972 1976 1980 1984 1988 1992 1996 2000 2004 2008 2012 2016 2020 2024 2028 2032 2036 2040 2044 2048 2052 2056 2060 2064 2068 2072 2076 2080 2084 2088 2092 2096 2100 2104 2108 2112 2116 2120 2124 2128 2132 2136 2140 2144 2148 2152 2156 2160 </DataArray>
<DataArray  type="UInt8"  Name="types"  format="ascii">10 10 10 10 10 10 10 10 10 10 10 10 10 10 10 10 10 10 10 10 10 10 10 10 10 10 10 10 10 10 10 10 10 10 10 10 10 10 10 10 10 10 10 10 10 10 10 10 10 10 10 10 10 10 10 10 10 10 10 10 10 10 10 10 10 10 10 10 10 10 10 10 10 10 10 10 10 10 10 10 10 10 10 10 10 10 10 10 10 10 10 10 10 10 10 10 10 10 10 10 10 10 10 10 10 10 10 10 10 10 10 10 10 10 10 10 10 10 10 10 10 10 10 10 10 10 10 10 10 10 10 10 10 10 10 10 10 10 10 10 10 10 10 10 10 10 10 10 10 10 10 10 10 10 10 10 10 10 10 10 10 10 10 10 10 10 10 10 10 10 10 10 10 10 10 10 10 10 10 10 10 10 10 10 10 10 10 10 10 10 10 10 10 10 10 10 10 10 10 10 10 10 10 10 10 10 10 10 10 10 10 10 10 10 10 10 10 10 10 10 10 10 10 10 10 10 10 10 10 10 10 10 10 10 10 10 10 10 10 10 10 10 10 10 10 10 10 10 10 10 10 10 10 10 10 10 10 10 10 10 10 10 10 10 10 10 10 10 10 10 10 10 10 10 10 10 10 10 10 10 10 10 10 10 10 10 10 10 10 10 10 10 10 10 10 10 10 10 10 10 10 10 10 10 10 10 10 10 10 10 10 10 10 10 10 10 10 10 10 10 10 10 10 10 10 10 10 10 10 10 10 10 10 10 10 10 10 10 10 10 10 10 10 10 10 10 10 10 10 10 10 10 10 10 10 10 10 10 10 10 10 10 10 10 10 10 10 10 10 10 10 10 10 10 10 10 10 10 10 10 10 10 10 10 10 10 10 10 10 10 10 10 10 10 10 10 10 10 10 10 10 10 10 10 10 10 10 10 10 10 10 10 10 10 10 10 10 10 10 10 10 10 10 10 10 10 10 10 10 10 10 10 10 10 10 10 10 10 10 10 10 10 10 10 10 10 10 10 10 10 10 10 10 10 10 10 10 10 10 10 10 10 10 10 10 10 10 10 10 10 10 10 10 10 10 10 10 10 10 10 10 10 10 10 10 10 10 10 10 10 10 10 10 10 10 10 10 10 10 10 10 10 10 10 10 10 10 10 10 10 10 10 10 10 10 10 10 10 10 10 10 10 10 10 10 10 10 10 10 10 10 10 10 10 10 10 10 10 10 10 </DataArray>
</Cells>
<PointData  Scalars="f_46"> 
<DataArray  type="Float64"  Name="f_46"  format="ascii">1.1504648793530733e-04  1.7105139519898317e-02  3.7335502133717495e-02  5.9538724260366591e-02  8.0776524972700853e-02  9.8578153415126449e-02  1.1127592424818429e-01  1.1807803593265827e-01  1.1909918648431117e-01  1.1540661982858647e-01  1.1085634436482436e-01  8.4619204176802334e-05  1.7710415834076756e-02  3.7831230522595953e-02  5.9661623259510715e-02  8.0579736782164915e-02  9.8202658666590503e-02  1.1088023344670687e-01  1.1780746307865782e-01  1.1906108762093531e-01  1.1562970967298966e-01  1.1090719794106978e-01  8.9190734595505781e-05  1.7937048284607172e-02  3.7963034202295041e-02  5.9661398999941224e-02  8.0492166670695239e-02  9.8098614584196692e-02  1.1083353409130764e-01  1.1788087439096467e-01  1.1929402203069338e-01  1.1599209256671919e-01  1.1110682820667875e-01  2.3934042958141881e-05  1.8072298621246242e-02  3.8046805954202109e-02  5.9818156436417073e-02  8.0730885732825775e-02  9.8413049234771330e-02  1.1122003838985320e-01  1.1832633352776815e-01  1.1978052505633449e-01  1.1655630323458549e-01  1.1142371700011895e-01  3.4951080198399894e-05  1.2837577796798762e-02  3.3512162002478120e-02  5.6903654558018511e-02  7.9338846448782890e-02  9.8106601739504723e-02  1.1145589130137430e-01  1.1858661673281562e-01  1.1965356493112388e-01  1.1580220107187220e-01  1.1106039436529246e-01  2.4478568397695883e-05  1.2952845881612262e-02  3.3503487518515847e-02  5.6633130949971702e-02  7.8895824786891749e-02  9.7618473362746039e-02  1.1104297472880255e-01  1.1834949706422537e-01  1.1966165299471519e-01  1.1606931645668866e-01  1.1110643954733225e-01  2.6836327941383008e-05  1.2820789000496879e-02  3.3278858164466997e-02  5.6350589433389643e-02  7.8636968692254144e-02  9.7444947524621295e-02  1.1100072624264135e-01  1.1846695841263120e-01  1.1994720050369717e-01  1.1647911602133777e-01  1.1134264755006784e-01  9.3968276718978690e-06  1.2267082399283268e-02  3.2728633371853541e-02  5.6004455029989367e-02  7.8549119249156474e-02  9.7602797746326811e-02  1.1136481202757564e-01  1.1897748261346208e-01  1.2053756995488350e-01  1.1713001647057492e-01  1.1168815761448973e-01  1.8102747221717410e-05  1.3142890558964358e-02  3.3572526829255746e-02  5.6890167787376676e-02  7.9274366090845025e-02  9.8026268600867716e-02  1.1140632779227794e-01  1.1861570119533855e-01  1.1979115419943245e-01  1.1600854169323957e-01  1.1111498663256941e-01  1.7733733539352345e-05  1.2992080206159957e-02  3.3321175061681203e-02  5.6453256122337439e-02  7.8733979086606343e-02  9.7494447834674439e-02  1.1098047444662471e-01  1.1837186516977986e-01  1.1978229988394065e-01  1.1626106284782335e-01  1.1119951972193019e-01  2.4633775656294652e-05  1.2565868629740157e-02  3.2732025305462785e-02  5.5931884356321619e-02  7.8353904198260202e-02  9.7292002533499983e-02  1.1096722108906142e-01  1.1854007684557077e-01  1.2011015673646228e-01  1.1669742949915854e-01  1.1148182118832112e-01  3.1804727996242183e-05  1.1684014693769567e-02  3.1794343905831329e-02  5.5317780633658539e-02  7.8101417859839858e-02  9.7370503165510686e-02  1.1131095930373612e-01  1.1906446733570812e-01  1.2072824876236161e-01  1.1737327300345739e-01  1.1188064046787483e-01  8.6091942846696739e-05  1.7997638071853828e-02  3.7879750220567124e-02  5.9684242570139184e-02  8.0604338335470302e-02  9.8261044650474902e-02  1.1101229587402524e-01  1.1805321797454292e-01  1.1945166824566771e-01  1.1607315495014310e-01  1.1109726116627835e-01  5.8896492992778219e-05  1.7131860737907872e-02  3.7305030680632734e-02  5.9101030800070002e-02  8.0045893505201499e-02  9.7787479607854791e-02  1.1066915912830000e-01  1.1787099930330901e-01  1.1944411500839791e-01  1.1627873887911966e-01  1.1118428719008451e-01  7.0816452893463110e-05  1.6394339723592874e-02  3.6395607169759009e-02  5.8371869118543362e-02  7.9572663291875040e-02  9.7577733271305714e-02  1.1069607492097427e-01  1.1808916196611727e-01  1.1979797392758701e-01  1.1671389484604942e-01  1.1148741107608162e-01  4.6405796400664058e-05  1.5207392167727672e-02  3.5069349808093647e-02  5.7468352009765682e-02  7.9178799985646295e-02  9.7627286258601370e-02  1.1107350518410543e-01  1.1866421163705991e-01  1.2044477034895566e-01  1.1737098415287721e-01  1.1191274823807680e-01  </DataArray> 
</PointData> 
</Piece>
</UnstructuredGrid>
</VTKFile>